[
    {
        "symbol": "H",
        "name": "Hydrogen",
        "atomic_number": 1,
<<<<<<< HEAD
        "atomic_weight": 1.00794,
        "electron_configuration": "1s\u00b9",
        "category": "Nonmetal",
        "standard_state": "Gas",
        "boiling_point": "-252.87\u00b0C",
        "melting_point": "-259.16\u00b0C"
=======
        "atomic_weight": 1.008,
        "electron_configuration": 1,
        "category": 1
>>>>>>> parent of b7a7912 (html)
    },
    {
        "symbol": "He",
        "name": "Helium",
        "atomic_number": 2,
        "atomic_weight": 4.002602,
        "electron_configuration": "1s\u00b2",
        "category": "Noble Gas",
        "standard_state": "Gas",
        "boiling_point": "-268.93\u00b0C",
        "melting_point": "-272.2\u00b0C"
    },
    {
        "symbol": "Li",
        "name": "Lithium",
        "atomic_number": 3,
        "atomic_weight": 6.939,
        "electron_configuration": "[He] 2s\u00b9",
        "category": "Alkali Metal",
        "standard_state": "Solid",
        "boiling_point": "1342\u00b0C",
        "melting_point": "180.54\u00b0C"
    },
    {
        "symbol": "Be",
        "name": "Beryllium",
        "atomic_number": 4,
        "atomic_weight": 9.0121831,
        "electron_configuration": "[He] 2s\u00b2",
        "category": "Alkaline Earth Metal",
        "standard_state": "Solid",
        "boiling_point": "2970\u00b0C",
        "melting_point": "1287\u00b0C"
    },
    {
        "symbol": "B",
        "name": "Boron",
        "atomic_number": 5,
        "atomic_weight": 10.806,
        "electron_configuration": "[He] 2s\u00b2 2p\u00b9",
        "category": "Metalloid",
        "standard_state": "Solid",
        "boiling_point": "3927\u00b0C",
        "melting_point": "2075\u00b0C"
    },
    {
        "symbol": "C",
        "name": "Carbon",
        "atomic_number": 6,
        "atomic_weight": 12.011,
        "electron_configuration": "[He] 2s\u00b2 2p\u00b2",
        "category": "Nonmetal",
        "standard_state": "Solid",
        "boiling_point": "3915\u00b0C",
        "melting_point": "3915\u00b0C"
    },
    {
        "symbol": "N",
        "name": "Nitrogen",
        "atomic_number": 7,
        "atomic_weight": 14.007,
        "electron_configuration": "[He] 2s\u00b2 2p\u00b3",
        "category": "Nonmetal",
        "standard_state": "Gas",
        "boiling_point": "-196\u00b0C",
        "melting_point": "-210\u00b0C"
    },
    {
        "symbol": "O",
        "name": "Oxygen",
        "atomic_number": 8,
        "atomic_weight": 15.999,
        "electron_configuration": "[He] 2s\u00b2 2p\u2074",
        "category": "Nonmetal",
        "standard_state": "Gas",
        "boiling_point": "-183\u00b0C",
        "melting_point": "-219\u00b0C"
    },
    {
        "symbol": "F",
        "name": "Fluorine",
        "atomic_number": 9,
        "atomic_weight": 18.998403163,
        "electron_configuration": "[He] 2s\u00b2 2p\u2075",
        "category": "Halogen",
        "standard_state": "Gas",
        "boiling_point": "-188\u00b0C",
        "melting_point": "-220\u00b0C"
    },
    {
        "symbol": "Ne",
        "name": "Neon",
        "atomic_number": 10,
        "atomic_weight": 20.1797,
        "electron_configuration": "[He] 2s\u00b2 2p\u2076",
        "category": "Noble Gas",
        "standard_state": "Gas",
        "boiling_point": "-246\u00b0C",
        "melting_point": "-248.6\u00b0C"
    },
    {
        "symbol": "Na",
        "name": "Sodium",
        "atomic_number": 11,
        "atomic_weight": 22.98976928,
        "electron_configuration": "[Ne] 3s\u00b9",
        "category": "Alkali Metal",
        "standard_state": "Solid",
        "boiling_point": "883\u00b0C",
        "melting_point": "97.8\u00b0C"
    },
    {
        "symbol": "Mg",
        "name": "Magnesium",
        "atomic_number": 12,
        "atomic_weight": 24.305,
        "electron_configuration": "[Ne] 3s\u00b2",
        "category": "Alkaline Earth Metal",
        "standard_state": "Solid",
        "boiling_point": "1090\u00b0C",
        "melting_point": "650\u00b0C"
    },
    {
        "symbol": "Al",
        "name": "Aluminium",
        "atomic_number": 13,
        "atomic_weight": 26.9815385,
        "electron_configuration": "[Ne] 3s\u00b2 3p\u00b9",
        "category": "Metal",
        "standard_state": "Solid",
        "boiling_point": "2519\u00b0C",
        "melting_point": "660.32\u00b0C"
    },
    {
        "symbol": "Si",
        "name": "Silicon",
        "atomic_number": 14,
        "atomic_weight": 28.085,
        "electron_configuration": "[Ne] 3s\u00b2 3p\u00b2",
        "category": "Metalloid",
        "standard_state": "Solid",
        "boiling point": "3265\u00b0C",
        "melting point": "1414\u00b0C"
    },
    {
        "symbol": "P",
        "name": "Phosphorus",
        "atomic_number": 15,
        "atomic_weight": 30.973762,
        "electron_configuration": "[Ne] 3s\u00b2 3p\u00b3",
        "category": "Nonmetal",
        "standard_state": "Solid",
        "boiling_point": "280\u00b0C",
        "melting point": "44.15\u00b0C"
    },
    {
        "symbol": "S",
        "name": "Sulfur",
        "atomic_number": 16,
        "atomic_weight": 32.06,
        "electron_configuration": "[Ne] 3s\u00b2 3p\u2074",
        "category": "Nonmetal",
        "standard_state": "Solid",
        "boiling_point": "444.67\u00b0C",
        "melting point": "115.21\u00b0C"
    },
    {
        "symbol": "Cl",
        "name": "Chlorine",
        "atomic_number": 17,
        "atomic_weight": 35.453,
        "electron_configuration": "[Ne] 3s\u00b2 3p\u2075",
        "category": "Halogen",
        "standard_state": "Gas",
        "boiling_point": "-34.04\u00b0C",
        "melting point": "-101.5\u00b0C"
    },
    {
        "symbol": "Ar",
        "name": "Argon",
        "atomic_number": 18,
        "atomic_weight": 39.948,
        "electron_configuration": "[Ne] 3s\u00b2 3p\u2076",
        "category": "Noble Gas",
        "standard_state": "Gas",
        "boiling point": "-185.87\u00b0C",
        "melting point": "-189.34\u00b0C"
    },
    {
        "symbol": "K",
        "name": "Potassium",
        "atomic_number": 19,
        "atomic_weight": 39.0983,
        "electron_configuration": "[Ar] 4s\u00b9",
        "category": "Alkali Metal",
        "standard_state": "Solid",
        "boiling point": "759\u00b0C",
        "melting point": "63.38\u00b0C"
    },
    {
        "symbol": "Ca",
        "name": "Calcium",
        "atomic_number": 20,
        "atomic_weight": 40.078,
        "electron_configuration": "[Ar] 4s\u00b2",
        "category": "Alkaline Earth Metal",
        "standard_state": "Solid",
        "boiling point": "1484\u00b0C",
        "melting point": "842\u00b0C"
    },
    {
        "symbol": "Sc",
        "name": "Scandium",
        "atomic_number": 21,
        "atomic_weight": 44.955908,
        "electron_configuration": "[Ar] 3d\u00b9 4s\u00b2",
        "category": "Transition Metal",
        "standard_state": "Solid",
        "boiling point": "2836\u00b0C",
        "melting point": "1541\u00b0C"
    },
    {
        "symbol": "Ti",
        "name": "Titanium",
        "atomic_number": 22,
        "atomic_weight": 47.867,
        "electron_configuration": "[Ar] 3d\u00b2 4s\u00b2",
        "category": "Transition Metal",
        "standard_state": "Solid",
        "boiling point": "3287\u00b0C",
        "melting point": "1668\u00b0C"
    },
    {
        "symbol": "V",
        "name": "Vanadium",
        "atomic_number": 23,
        "atomic_weight": 50.9415,
        "electron_configuration": "[Ar] 3d\u00b3 4s\u00b2",
        "category": "Transition Metal",
        "standard_state": "Solid",
        "boiling point": "3407\u00b0C",
        "melting point": "1910\u00b0C"
    },
    {
        "symbol": "Cr",
        "name": "Chromium",
        "atomic_number": 24,
        "atomic_weight": 51.9961,
        "electron_configuration": "[Ar] 3d\u2074 4s\u00b2",
        "category": "Transition Metal",
        "standard_state": "Solid",
        "boiling point": "2671\u00b0C",
        "melting point": "1907\u00b0C"
    },
    {
        "symbol": "Mn",
        "name": "Manganese",
        "atomic_number": 25,
        "atomic_weight": 54.938044,
        "electron_configuration": "[Ar] 3d\u2075 4s\u00b2",
        "category": "Transition Metal",
        "standard_state": "Solid",
        "boiling point": "1962\u00b0C",
        "melting point": "1246\u00b0C"
    },
    {
        "symbol": "Fe",
        "name": "Iron",
        "atomic_number": 26,
        "atomic_weight": 55.845,
        "electron_configuration": "[Ar] 3d\u2076 4s\u00b2",
        "category": "Transition Metal",
        "standard_state": "Solid",
        "boiling point": "2861\u00b0C",
        "melting point": "1538\u00b0C"
    },
    {
        "symbol": "Co",
        "name": "Cobalt",
        "atomic_number": 27,
        "atomic_weight": 58.933194,
        "electron_configuration": "[Ar] 3d\u2077 4s\u00b2",
        "category": "Transition Metal",
        "standard_state": "Solid",
        "boiling point": "2927\u00b0C",
        "melting point": "1495\u00b0C"
    },
    {
        "symbol": "U",
        "name": "Uranium",
        "atomic_number": 92,
        "atomic_weight": 238.02891,
        "electron_configuration": "[Ar] 1s\u00b2 2s\u00b2 2p\u2076 3s\u00b2 3p\u2076 3d\u00b9\u2070 4s\u00b2 4p\u2076 4d\u00b9\u2070 4f\u00b9\u2074 5s\u00b2 5p\u2076 5d\u00b9\u2070 6s\u00b2 6p\u2076 6d\u00b9\u2070 7s\u00b2 5f\u00b3 6d\u00b9 7p\u2076"
    },
    {
        "symbol": "Np",
        "name": "Neptunium",
        "atomic_number": 93,
        "atomic_weight": 237
    },
    {
        "symbol": "Pu",
        "name": "Plutonium",
        "atomic_number": 94,
        "atomic_weight": 244
    },
    {
        "symbol": "Am",
        "name": "Americium",
        "atomic_number": 95,
        "atomic_weight": 243
    },
    {
        "symbol": "Cm",
        "name": "Curium",
        "atomic_number": 96,
        "atomic_weight": 247
    },
    {
        "symbol": "Bk",
        "name": "Berkelium",
        "atomic_number": 97,
        "atomic_weight": 247
    },
    {
        "symbol": "Cf",
        "name": "Californium",
        "atomic_number": 98,
        "atomic_weight": 251
    },
    {
        "symbol": "Es",
        "name": "Einsteinium",
        "atomic_number": 99,
        "atomic_weight": 252
    },
    {
        "symbol": "Fm",
        "name": "Fermium",
        "atomic_number": 100,
        "atomic_weight": 257
    },
    {
        "symbol": "Md",
        "name": "Mendelevium",
        "atomic_number": 101,
        "atomic_weight": 258
    },
    {
        "symbol": "No",
        "name": "Nobelium",
        "atomic_number": 102,
        "atomic_weight": 259
    },
    {
        "symbol": "Lr",
        "name": "Lawrencium",
        "atomic_number": 103,
        "atomic_weight": 266
    },
    {
        "symbol": "Rf",
        "name": "Rutherfordium",
        "atomic_number": 104,
        "atomic_weight": 267
    },
    {
        "symbol": "Db",
        "name": "Dubnium",
        "atomic_number": 105,
        "atomic_weight": 270
    },
    {
        "symbol": "Sg",
        "name": "Seaborgium",
        "atomic_number": 106,
        "atomic_weight": 271
    },
    {
        "symbol": "Bh",
        "name": "Bohrium",
        "atomic_number": 107,
        "atomic_weight": 270
    },
    {
        "symbol": "Hs",
        "name": "Hassium",
        "atomic_number": 108,
        "atomic_weight": 277
    },
    {
        "symbol": "Mt",
        "name": "Meitnerium",
        "atomic_number": 109,
        "atomic_weight": 276
    },
    {
        "symbol": "Ds",
        "name": "Darmstadtium",
        "atomic_number": 110,
        "atomic_weight": 281
    },
    {
        "symbol": "Rg",
        "name": "Roentgenium",
        "atomic_number": 111,
        "atomic_weight": 280
    },
    {
        "symbol": "Cn",
        "name": "Copernicium",
        "atomic_number": 112,
        "atomic_weight": 285
    },
    {
        "symbol": "Nh",
        "name": "Nihonium",
        "atomic_number": 113,
        "atomic_weight": 284
    },
    {
        "symbol": "Fl",
        "name": "Flerovium",
        "atomic_number": 114,
        "atomic_weight": 289
    },
    {
        "symbol": "Mc",
        "name": "Moscovium",
        "atomic_number": 115,
        "atomic_weight": 288
    },
    {
        "symbol": "Lv",
        "name": "Livermorium",
        "atomic_number": 116,
        "atomic_weight": 292
    },
    {
        "symbol": "Ts",
        "name": "Tennessine",
        "atomic_number": 117,
        "atomic_weight": 294
    },
    {
        "symbol": "Og",
        "name": "Oganesson",
        "atomic_number": 118,
        "atomic_weight": 294
    }
]